 ******************************************************************
 *************  stfc/ccp5  program  library  package  ** D ********
 *************  daresbury laboratory general purpose  *** L *******
 **         **  classical molecular dynamics program  **** \ ******
 ** DL_POLY **  authors:   i.t.todorov   &   w.smith  ***** P *****
 **         **  version: 4.08    /      march  2016   ****** O ****
 *************  execution on            8 process(es) ******* L ***
 *************  contributors' list:                   ******** Y **
 *************  ------------------------------------  *************
 *************  i.j.bush, h.a.boateng, r.davidchak,   *************
 *************  m.a.seaton, a.v.brukhno, a.m.elena    *************
 ******************************************************************

 ******************************************************************
 *** birthday:  Mar 14 2016@15:05:29                           ****
 ***  machine:  lapito.dl.ac.uk                                ****
 ***  builder:  dr faustroll                                   ****
 *** compiler:  gfortran                                       ****
 ***  version:  5.3.1 20151207 [gcc-5-branch revision 231355]  ****
 ***      MPI:  3.0                                            ****
 ***  library: Open MPI v1.10.1, package: Open MPI alin@lapito ****
 ***  library:  Distribution, ident: 1.10.1, repo rev: v1.10.0 ****
 ***  library: -178-gb80f802, Nov 03, 2015                     ****
 ******************************************************************

 ******************************************************************
 ****  ~~~~~~~~~~~~~~~~~~~~~~~~~~~~~~~~~~~~~~~~~~~~~~~~~~~~~~  ****
 ****  Please do cite `J. Mater. Chem.', 16, 1911-1918 (2006)  ****
 ****  ^^^^^^^^^^^^^^^^^^^^^^^^^^^^^^^^^^^^^^^^^^^^^^^^^^^^^^  ****
 ****  when publishing research data obtained using DL_POLY_4  ****
 ****  ^^^^^^^^^^^^^^^^^^^^^^^^^^^^^^^^^^^^^^^^^^^^^^^^^^^^^^  ****
 ******************************************************************


 I/O read method: parallel by using MPI-I/O (assumed)
 I/O readers (assumed)                   4
 I/O read batch size (assumed)     2000000
 I/O read buffer size (assumed)      20000
 I/O parallel read error checking off (assumed)

 I/O write method: parallel by using MPI-I/O (assumed)
 I/O write type: data sorting on (assumed)
 I/O writers (assumed)                   8
 I/O write batch size (assumed)    2000000
 I/O write buffer size (assumed)     20000
 I/O parallel write error checking off (assumed)


 node/domain decomposition (x,y,z):      2     2     2

 cutoffs driven limit on largest possible decomposition:  1694 nodes/domains (14,11,11)

 cutoffs driven limit on largest balanced decomposition:   175 nodes/domains (7,5,5)

 link-cell decomposition 1 (x,y,z):      7     5     5

 *** pre-scanning stage (set_bounds) DONE ***

 time elapsed since job start:        0.395 sec

 **********************************************************************************************************************************
 **********************************************************************************************************************************
 **********************************************************************************************************************************
 ************************     8xGRAMICIDIN A WITH WATER SOLVATING (99120 ATOMS)                            ************************
 **********************************************************************************************************************************
 **********************************************************************************************************************************
 **********************************************************************************************************************************


 SIMULATION CONTROL PARAMETERS

 simulation temperature (K)          3.0000E+02

 simulation pressure (katms)         1.0000E-03

 Integration : Velocity Verlet
 Ensemble : NPT isotropic Berendsen
 thermostat relaxation time (ps)     5.0000E-01
 barostat relaxation time   (ps)     1.0000E+00

 scaled restart requested (starting a new simulation)

 selected number of timesteps           20

 equilibration period (steps)           20

 equilibration included in overall averages

 temperature scaling on (during equilibration)
 temperature scaling interval            3

 force capping on (during equilibration)
 force capping limit (kT/Angs)       1.0000E+03

 real space cutoff (Angs)            8.0000E+00

 vdw cutoff (Angs)                   8.0000E+00

 Electrostatics : Smooth Particle Mesh Ewald
 Ewald sum precision                 1.0000E-06
 Ewald convergence parameter (A^-1)  4.0514E-01
 Ewald kmax1 kmax2 kmax3   (x2)    90   76   76
 DaFT adjusted kmax values (x2)    90   80   80
 B-spline interpolation order            8

 data printing interval (steps)          5

 statistics file interval                5

 iterations for shake/rattle           250
 tolerance for shake/rattle (Angs)   1.0000E-06

 Extended Coulombic eXclusion : NO

 variable simulation timestep (ps)   1.0000E-03

 controls for variable timestep
 minimum distance Dmin (Angs)        3.0000E-02
 maximum distance Dmax (Angs)        1.0000E-01

 data dumping interval (steps)        1000

 subcelling threshold density        5.0000E+01

 allocated job run time   (s)        7.2000E+03

 allocated job close time (s)        1.0000E+02


 SYSTEM SPECIFICATION

 energy units = kcal/mol


 number of molecular types               2


 molecular species type                  1

 name of species:             Gramicidin A                            

 number of molecules                     8

 number of atoms/sites                 354

 atomic characteristics:

               site    name             mass         charge      repeat      freeze

                  1    O             16.000000      -0.500000         1         0
                  2    CS            12.010000       0.500000         1         0
                  3    N             14.010000      -0.570000         1         0
                  4    H              1.008000       0.370000         1         0
                  5    CH            13.020000       0.200000         1         0
                  6    CZ            14.030000       0.000000         1         0
                  7    C3            15.030000       0.000000         1         0
                  8    C3            15.030000       0.000000         1         0
                  9    C             12.010000       0.500000         1         0
                 10    O             16.000000      -0.500000         1         0
                 11    N             14.010000      -0.570000         1         0
                 12    H              1.008000       0.370000         1         0
                 13    CQ            12.010000       0.200000         1         0
                 14    C             12.010000       0.500000         1         0
                 15    O             16.000000      -0.500000         1         0
                 16    N             14.010000      -0.570000         1         0
                 17    H              1.008000       0.370000         1         0
                 18    CH            13.020000       0.200000         1         0
                 19    C3            15.030000       0.000000         1         0
                 20    C             12.010000       0.500000         1         0
                 21    O             16.000000      -0.500000         1         0
                 22    N             14.010000      -0.570000         1         0
                 23    H              1.008000       0.370000         1         0
                 24    CH            13.020000       0.200000         1         0
                 25    C2            14.030000       0.000000         1         0
                 26    CZ            14.030000       0.000000         1         0
                 27    C3            15.030000       0.000000         1         0
                 28    C3            15.030000       0.000000         1         0
                 29    C             12.010000       0.500000         1         0
                 30    O             16.000000      -0.500000         1         0
                 31    N             14.010000      -0.570000         1         0
                 32    H              1.008000       0.370000         1         0
                 33    CH            13.020000       0.200000         1         0
                 34    C3            15.030000       0.000000         1         0
                 35    C             12.010000       0.500000         1         0
                 36    O             16.000000      -0.500000         1         0
                 37    N             14.010000      -0.570000         1         0
                 38    H              1.008000       0.370000         1         0
                 39    CH            13.020000       0.200000         1         0
                 40    CZ            14.030000       0.000000         1         0
                 41    C3            15.030000       0.000000         1         0
                 42    C3            15.030000       0.000000         1         0
                 43    C             12.010000       0.500000         1         0
                 44    O             16.000000      -0.500000         1         0
                 45    N             14.010000      -0.570000         1         0
                 46    H              1.008000       0.370000         1         0
                 47    CH            13.020000       0.200000         1         0
                 48    CZ            14.030000       0.000000         1         0
                 49    C3            15.030000       0.000000         1         0
                 50    C3            15.030000       0.000000         1         0
                 51    C             12.010000       0.500000         1         0
                 52    O             16.000000      -0.500000         1         0
                 53    N             14.010000      -0.570000         1         0
                 54    H              1.008000       0.370000         1         0
                 55    CH            13.020000       0.200000         1         0
                 56    CZ            14.030000       0.000000         1         0
                 57    C3            15.030000       0.000000         1         0
                 58    C3            15.030000       0.000000         1         0
                 59    C             12.010000       0.500000         1         0
                 60    O             16.000000      -0.500000         1         0
                 61    N             14.010000      -0.570000         1         0
                 62    H              1.008000       0.370000         1         0
                 63    CH            13.020000       0.200000         1         0
                 64    C2            14.030000       0.115000         1         0
                 65    CK            12.010000      -0.170000         1         0
                 66    CK            12.010000       0.015000         1         0
                 67    HK             1.008000       0.115000         1         0
                 68    NA            14.010000      -0.570000         1         0
                 69    H              1.008000       0.420000         1         0
                 70    CN            12.010000       0.130000         1         0
                 71    CK            12.010000      -0.115000         1         0
                 72    HK             1.008000       0.115000         1         0
                 73    CK            12.010000      -0.115000         1         0
                 74    HK             1.008000       0.115000         1         0
                 75    CK            12.010000      -0.115000         1         0
                 76    HK             1.008000       0.115000         1         0
                 77    CK            12.010000      -0.115000         1         0
                 78    HK             1.008000       0.115000         1         0
                 79    CB            12.010000      -0.055000         1         0
                 80    C             12.010000       0.500000         1         0
                 81    O             16.000000      -0.500000         1         0
                 82    N             14.010000      -0.570000         1         0
                 83    H              1.008000       0.370000         1         0
                 84    CH            13.020000       0.200000         1         0
                 85    C2            14.030000       0.000000         1         0
                 86    CZ            14.030000       0.000000         1         0
                 87    C3            15.030000       0.000000         1         0
                 88    C3            15.030000       0.000000         1         0
                 89    C             12.010000       0.500000         1         0
                 90    O             16.000000      -0.500000         1         0
                 91    N             14.010000      -0.570000         1         0
                 92    H              1.008000       0.370000         1         0
                 93    CH            13.020000       0.200000         1         0
                 94    C2            14.030000       0.115000         1         0
                 95    CK            12.010000      -0.170000         1         0
                 96    CK            12.010000       0.015000         1         0
                 97    HK             1.008000       0.115000         1         0
                 98    NA            14.010000      -0.570000         1         0
                 99    H              1.008000       0.420000         1         0
                100    CN            12.010000       0.130000         1         0
                101    CK            12.010000      -0.115000         1         0
                102    HK             1.008000       0.115000         1         0
                103    CK            12.010000      -0.115000         1         0
                104    HK             1.008000       0.115000         1         0
                105    CK            12.010000      -0.115000         1         0
                106    HK             1.008000       0.115000         1         0
                107    CK            12.010000      -0.115000         1         0
                108    HK             1.008000       0.115000         1         0
                109    CB            12.010000      -0.055000         1         0
                110    C             12.010000       0.500000         1         0
                111    O             16.000000      -0.500000         1         0
                112    N             14.010000      -0.570000         1         0
                113    H              1.008000       0.370000         1         0
                114    CH            13.020000       0.200000         1         0
                115    C2            14.030000       0.000000         1         0
                116    CZ            14.030000       0.000000         1         0
                117    C3            15.030000       0.000000         1         0
                118    C3            15.030000       0.000000         1         0
                119    C             12.010000       0.500000         1         0
                120    O             16.000000      -0.500000         1         0
                121    N             14.010000      -0.570000         1         0
                122    H              1.008000       0.370000         1         0
                123    CH            13.020000       0.200000         1         0
                124    C2            14.030000       0.115000         1         0
                125    CK            12.010000      -0.170000         1         0
                126    CK            12.010000       0.015000         1         0
                127    HK             1.008000       0.115000         1         0
                128    NA            14.010000      -0.570000         1         0
                129    H              1.008000       0.420000         1         0
                130    CN            12.010000       0.130000         1         0
                131    CK            12.010000      -0.115000         1         0
                132    HK             1.008000       0.115000         1         0
                133    CK            12.010000      -0.115000         1         0
                134    HK             1.008000       0.115000         1         0
                135    CK            12.010000      -0.115000         1         0
                136    HK             1.008000       0.115000         1         0
                137    CK            12.010000      -0.115000         1         0
                138    HK             1.008000       0.115000         1         0
                139    CB            12.010000      -0.055000         1         0
                140    C             12.010000       0.500000         1         0
                141    O             16.000000      -0.500000         1         0
                142    N             14.010000      -0.570000         1         0
                143    H              1.008000       0.370000         1         0
                144    CH            13.020000       0.200000         1         0
                145    C2            14.030000       0.000000         1         0
                146    CZ            14.030000       0.000000         1         0
                147    C3            15.030000       0.000000         1         0
                148    C3            15.030000       0.000000         1         0
                149    C             12.010000       0.500000         1         0
                150    O             16.000000      -0.500000         1         0
                151    N             14.010000      -0.570000         1         0
                152    H              1.008000       0.370000         1         0
                153    CH            13.020000       0.200000         1         0
                154    C2            14.030000       0.115000         1         0
                155    CK            12.010000      -0.170000         1         0
                156    CK            12.010000       0.015000         1         0
                157    HK             1.008000       0.115000         1         0
                158    NA            14.010000      -0.570000         1         0
                159    H              1.008000       0.420000         1         0
                160    CN            12.010000       0.130000         1         0
                161    CK            12.010000      -0.115000         1         0
                162    HK             1.008000       0.115000         1         0
                163    CK            12.010000      -0.115000         1         0
                164    HK             1.008000       0.115000         1         0
                165    CK            12.010000      -0.115000         1         0
                166    HK             1.008000       0.115000         1         0
                167    CK            12.010000      -0.115000         1         0
                168    HK             1.008000       0.115000         1         0
                169    CB            12.010000      -0.055000         1         0
                170    C             12.010000       0.500000         1         0
                171    O             16.000000      -0.500000         1         0
                172    N             14.010000      -0.570000         1         0
                173    H              1.008000       0.370000         1         0
                174    C2            14.030000       0.200000         1         0
                175    C2            14.030000       0.265000         1         0
                176    OH            16.000000      -0.700000         1         0
                177    HO             1.008000       0.435000         1         0
                178    O             16.000000      -0.500000         1         0
                179    CS            12.010000       0.500000         1         0
                180    N             14.010000      -0.570000         1         0
                181    H              1.008000       0.370000         1         0
                182    CH            13.020000       0.200000         1         0
                183    CZ            14.030000       0.000000         1         0
                184    C3            15.030000       0.000000         1         0
                185    C3            15.030000       0.000000         1         0
                186    C             12.010000       0.500000         1         0
                187    O             16.000000      -0.500000         1         0
                188    N             14.010000      -0.570000         1         0
                189    H              1.008000       0.370000         1         0
                190    CQ            12.010000       0.200000         1         0
                191    C             12.010000       0.500000         1         0
                192    O             16.000000      -0.500000         1         0
                193    N             14.010000      -0.570000         1         0
                194    H              1.008000       0.370000         1         0
                195    CH            13.020000       0.200000         1         0
                196    C3            15.030000       0.000000         1         0
                197    C             12.010000       0.500000         1         0
                198    O             16.000000      -0.500000         1         0
                199    N             14.010000      -0.570000         1         0
                200    H              1.008000       0.370000         1         0
                201    CH            13.020000       0.200000         1         0
                202    C2            14.030000       0.000000         1         0
                203    CZ            14.030000       0.000000         1         0
                204    C3            15.030000       0.000000         1         0
                205    C3            15.030000       0.000000         1         0
                206    C             12.010000       0.500000         1         0
                207    O             16.000000      -0.500000         1         0
                208    N             14.010000      -0.570000         1         0
                209    H              1.008000       0.370000         1         0
                210    CH            13.020000       0.200000         1         0
                211    C3            15.030000       0.000000         1         0
                212    C             12.010000       0.500000         1         0
                213    O             16.000000      -0.500000         1         0
                214    N             14.010000      -0.570000         1         0
                215    H              1.008000       0.370000         1         0
                216    CH            13.020000       0.200000         1         0
                217    CZ            14.030000       0.000000         1         0
                218    C3            15.030000       0.000000         1         0
                219    C3            15.030000       0.000000         1         0
                220    C             12.010000       0.500000         1         0
                221    O             16.000000      -0.500000         1         0
                222    N             14.010000      -0.570000         1         0
                223    H              1.008000       0.370000         1         0
                224    CH            13.020000       0.200000         1         0
                225    CZ            14.030000       0.000000         1         0
                226    C3            15.030000       0.000000         1         0
                227    C3            15.030000       0.000000         1         0
                228    C             12.010000       0.500000         1         0
                229    O             16.000000      -0.500000         1         0
                230    N             14.010000      -0.570000         1         0
                231    H              1.008000       0.370000         1         0
                232    CH            13.020000       0.200000         1         0
                233    CZ            14.030000       0.000000         1         0
                234    C3            15.030000       0.000000         1         0
                235    C3            15.030000       0.000000         1         0
                236    C             12.010000       0.500000         1         0
                237    O             16.000000      -0.500000         1         0
                238    N             14.010000      -0.570000         1         0
                239    H              1.008000       0.370000         1         0
                240    CH            13.020000       0.200000         1         0
                241    C2            14.030000       0.115000         1         0
                242    CK            12.010000      -0.170000         1         0
                243    CK            12.010000       0.015000         1         0
                244    HK             1.008000       0.115000         1         0
                245    NA            14.010000      -0.570000         1         0
                246    H              1.008000       0.420000         1         0
                247    CN            12.010000       0.130000         1         0
                248    CK            12.010000      -0.115000         1         0
                249    HK             1.008000       0.115000         1         0
                250    CK            12.010000      -0.115000         1         0
                251    HK             1.008000       0.115000         1         0
                252    CK            12.010000      -0.115000         1         0
                253    HK             1.008000       0.115000         1         0
                254    CK            12.010000      -0.115000         1         0
                255    HK             1.008000       0.115000         1         0
                256    CB            12.010000      -0.055000         1         0
                257    C             12.010000       0.500000         1         0
                258    O             16.000000      -0.500000         1         0
                259    N             14.010000      -0.570000         1         0
                260    H              1.008000       0.370000         1         0
                261    CH            13.020000       0.200000         1         0
                262    C2            14.030000       0.000000         1         0
                263    CZ            14.030000       0.000000         1         0
                264    C3            15.030000       0.000000         1         0
                265    C3            15.030000       0.000000         1         0
                266    C             12.010000       0.500000         1         0
                267    O             16.000000      -0.500000         1         0
                268    N             14.010000      -0.570000         1         0
                269    H              1.008000       0.370000         1         0
                270    CH            13.020000       0.200000         1         0
                271    C2            14.030000       0.115000         1         0
                272    CK            12.010000      -0.170000         1         0
                273    CK            12.010000       0.015000         1         0
                274    HK             1.008000       0.115000         1         0
                275    NA            14.010000      -0.570000         1         0
                276    H              1.008000       0.420000         1         0
                277    CN            12.010000       0.130000         1         0
                278    CK            12.010000      -0.115000         1         0
                279    HK             1.008000       0.115000         1         0
                280    CK            12.010000      -0.115000         1         0
                281    HK             1.008000       0.115000         1         0
                282    CK            12.010000      -0.115000         1         0
                283    HK             1.008000       0.115000         1         0
                284    CK            12.010000      -0.115000         1         0
                285    HK             1.008000       0.115000         1         0
                286    CB            12.010000      -0.055000         1         0
                287    C             12.010000       0.500000         1         0
                288    O             16.000000      -0.500000         1         0
                289    N             14.010000      -0.570000         1         0
                290    H              1.008000       0.370000         1         0
                291    CH            13.020000       0.200000         1         0
                292    C2            14.030000       0.000000         1         0
                293    CZ            14.030000       0.000000         1         0
                294    C3            15.030000       0.000000         1         0
                295    C3            15.030000       0.000000         1         0
                296    C             12.010000       0.500000         1         0
                297    O             16.000000      -0.500000         1         0
                298    N             14.010000      -0.570000         1         0
                299    H              1.008000       0.370000         1         0
                300    CH            13.020000       0.200000         1         0
                301    C2            14.030000       0.115000         1         0
                302    CK            12.010000      -0.170000         1         0
                303    CK            12.010000       0.015000         1         0
                304    HK             1.008000       0.115000         1         0
                305    NA            14.010000      -0.570000         1         0
                306    H              1.008000       0.420000         1         0
                307    CN            12.010000       0.130000         1         0
                308    CK            12.010000      -0.115000         1         0
                309    HK             1.008000       0.115000         1         0
                310    CK            12.010000      -0.115000         1         0
                311    HK             1.008000       0.115000         1         0
                312    CK            12.010000      -0.115000         1         0
                313    HK             1.008000       0.115000         1         0
                314    CK            12.010000      -0.115000         1         0
                315    HK             1.008000       0.115000         1         0
                316    CB            12.010000      -0.055000         1         0
                317    C             12.010000       0.500000         1         0
                318    O             16.000000      -0.500000         1         0
                319    N             14.010000      -0.570000         1         0
                320    H              1.008000       0.370000         1         0
                321    CH            13.020000       0.200000         1         0
                322    C2            14.030000       0.000000         1         0
                323    CZ            14.030000       0.000000         1         0
                324    C3            15.030000       0.000000         1         0
                325    C3            15.030000       0.000000         1         0
                326    C             12.010000       0.500000         1         0
                327    O             16.000000      -0.500000         1         0
                328    N             14.010000      -0.570000         1         0
                329    H              1.008000       0.370000         1         0
                330    CH            13.020000       0.200000         1         0
                331    C2            14.030000       0.115000         1         0
                332    CK            12.010000      -0.170000         1         0
                333    CK            12.010000       0.015000         1         0
                334    HK             1.008000       0.115000         1         0
                335    NA            14.010000      -0.570000         1         0
                336    H              1.008000       0.420000         1         0
                337    CN            12.010000       0.130000         1         0
                338    CK            12.010000      -0.115000         1         0
                339    HK             1.008000       0.115000         1         0
                340    CK            12.010000      -0.115000         1         0
                341    HK             1.008000       0.115000         1         0
                342    CK            12.010000      -0.115000         1         0
                343    HK             1.008000       0.115000         1         0
                344    CK            12.010000      -0.115000         1         0
                345    HK             1.008000       0.115000         1         0
                346    CB            12.010000      -0.055000         1         0
                347    C             12.010000       0.500000         1         0
                348    O             16.000000      -0.500000         1         0
                349    N             14.010000      -0.570000         1         0
                350    H              1.008000       0.370000         1         0
                351    C2            14.030000       0.200000         1         0
                352    C2            14.030000       0.265000         1         0
                353    OH            16.000000      -0.700000         1         0
                354    HO             1.008000       0.435000         1         0


 number of dihedral angles             960

 dihedral angle details:

                  unit     key     index     index     index     index       f-const        angle         trig           1-4 elec       1-4 vdw

                     1    cos          1         2         3         4       1.702000       0.000000       1.000000       0.500000       0.125000       0.000000       0.000000
                     2    cos          2         5         3         4       1.000000     180.000000       2.000000       0.000000       0.000000       0.000000       0.000000
                     3    cos          1         2         3         4       4.970000     180.000000       2.000000       0.000000       0.000000       0.000000       0.000000
                     4    cos          1         2         3         5       1.702000     180.000000       1.000000       0.500000       0.125000       0.000000       0.000000
                     5    cos          1         2         3         5       4.970000     180.000000       2.000000       0.000000       0.000000       0.000000       0.000000
                     6    cos          6         5         3         9      14.000000     180.000000       3.000000       0.000000       0.000000       0.000000       0.000000
                     7    cos          2         3         5         6       0.000000       0.000000       3.000000       0.500000       0.125000       0.000000       0.000000
                     8    cos          2         3         5         9       0.000000       0.000000       3.000000       0.500000       0.125000       0.000000       0.000000
                     9    cos          4         3         5         6       0.000000       0.000000       3.000000       0.500000       0.125000       0.000000       0.000000
                    10    cos          4         3         5         9       0.000000       0.000000       3.000000       0.500000       0.125000       0.000000       0.000000
                    11    cos          7         6         5         8      14.000000     180.000000       3.000000       0.000000       0.000000       0.000000       0.000000
                    12    cos          7         6         5         9       0.500000       0.000000       3.000000       0.500000       0.125000       0.000000       0.000000
                    13    cos          8         6         5         9       0.500000       0.000000       3.000000       0.500000       0.125000       0.000000       0.000000
                    14    cos          3         5         6         7       0.500000       0.000000       3.000000       0.500000       0.125000       0.000000       0.000000
                    15    cos          3         5         6         8       0.500000       0.000000       3.000000       0.500000       0.125000       0.000000       0.000000
                    16    cos          3         5         9        10       0.100000     180.000000       3.000000       0.500000       0.125000       0.000000       0.000000
                    17    cos          5        11         9        10      10.500000     180.000000       2.000000       0.000000       0.000000       0.000000       0.000000
                    18    cos          6         5         9        10       0.100000     180.000000       3.000000       0.500000       0.125000       0.000000       0.000000
                    19    cos          3         5         9        11       0.000000       0.000000       2.000000       0.500000       0.125000       0.000000       0.000000
                    20    cos          6         5         9        11       0.000000       0.000000       2.000000       0.500000       0.125000       0.000000       0.000000
                    21    cos          5         9        11        12       2.500000     180.000000       2.000000       0.500000       0.125000       0.000000       0.000000
                    22    cos          5         9        11        13       2.500000     180.000000       2.000000       0.500000       0.125000       0.000000       0.000000
                    23    cos         10         9        11        12       2.500000     180.000000       2.000000       0.500000       0.125000       0.000000       0.000000
                    24    cos         10         9        11        12       0.650000       0.000000       1.000000       0.000000       0.000000       0.000000       0.000000
                    25    cos         10         9        11        13       2.500000     180.000000       2.000000       0.500000       0.125000       0.000000       0.000000
                    26    cos          9        13        11        12       1.000000     180.000000       2.000000       0.000000       0.000000       0.000000       0.000000
                    27    cos          9        11        13        14       0.000000       0.000000       3.000000       0.500000       0.125000       0.000000       0.000000
                    28    cos         12        11        13        14       0.000000       0.000000       3.000000       0.500000       0.125000       0.000000       0.000000
                    29    cos         11        13        14        15       0.200000     180.000000       3.000000       0.500000       0.125000       0.000000       0.000000
                    30    cos         13        16        14        15      10.500000     180.000000       2.000000       0.000000       0.000000       0.000000       0.000000
                    31    cos         11        13        14        16       0.000000     180.000000       3.000000       0.500000       0.125000       0.000000       0.000000
                    32    cos         13        14        16        17       2.500000     180.000000       2.000000       0.500000       0.125000       0.000000       0.000000
                    33    cos         13        14        16        18       2.500000     180.000000       2.000000       0.500000       0.125000       0.000000       0.000000
                    34    cos         15        14        16        17       2.500000     180.000000       2.000000       0.500000       0.125000       0.000000       0.000000
                    35    cos         15        14        16        17       0.650000       0.000000       1.000000       0.000000       0.000000       0.000000       0.000000
                    36    cos         15        14        16        18       2.500000     180.000000       2.000000       0.500000       0.125000       0.000000       0.000000
                    37    cos         14        18        16        17       1.000000     180.000000       2.000000       0.000000       0.000000       0.000000       0.000000
                    38    cos         19        18        16        20      14.000000     180.000000       3.000000       0.000000       0.000000       0.000000       0.000000
                    39    cos         14        16        18        19       0.000000       0.000000       3.000000       0.500000       0.125000       0.000000       0.000000
                    40    cos         14        16        18        20       0.000000       0.000000       3.000000       0.500000       0.125000       0.000000       0.000000
                    41    cos         17        16        18        19       0.000000       0.000000       3.000000       0.500000       0.125000       0.000000       0.000000
                    42    cos         17        16        18        20       0.000000       0.000000       3.000000       0.500000       0.125000       0.000000       0.000000
                    43    cos         16        18        20        21       0.100000     180.000000       3.000000       0.500000       0.125000       0.000000       0.000000
                    44    cos         18        22        20        21      10.500000     180.000000       2.000000       0.000000       0.000000       0.000000       0.000000
                    45    cos         19        18        20        21       0.000000       0.000000       2.000000       0.500000       0.125000       0.000000       0.000000
                    46    cos         16        18        20        22       0.000000       0.000000       2.000000       0.500000       0.125000       0.000000       0.000000
                    47    cos         19        18        20        22       0.000000       0.000000       2.000000       0.500000       0.125000       0.000000       0.000000
                    48    cos         18        20        22        23       2.500000     180.000000       2.000000       0.500000       0.125000       0.000000       0.000000
                    49    cos         18        20        22        24       2.500000     180.000000       2.000000       0.500000       0.125000       0.000000       0.000000
                    50    cos         21        20        22        23       2.500000     180.000000       2.000000       0.500000       0.125000       0.000000       0.000000
                    51    cos         21        20        22        23       0.650000       0.000000       1.000000       0.000000       0.000000       0.000000       0.000000
                    52    cos         21        20        22        24       2.500000     180.000000       2.000000       0.500000       0.125000       0.000000       0.000000
                    53    cos         20        22        24        25       0.000000       0.000000       3.000000       0.500000       0.125000       0.000000       0.000000
                    54    cos         20        22        24        29       0.000000       0.000000       3.000000       0.500000       0.125000       0.000000       0.000000
                    55    cos         20        24        22        23       1.000000     180.000000       2.000000       0.000000       0.000000       0.000000       0.000000
                    56    cos         22        24        25        26       1.000000       0.000000       3.000000       0.500000       0.125000       0.000000       0.000000
                    57    cos         22        24        29        30       0.100000     180.000000       3.000000       0.500000       0.125000       0.000000       0.000000
                    58    cos         23        22        24        25       0.000000       0.000000       3.000000       0.500000       0.125000       0.000000       0.000000
                    59    cos         23        22        24        29       0.000000       0.000000       3.000000       0.500000       0.125000       0.000000       0.000000
                    60    cos         24        25        26        27       1.000000       0.000000       3.000000       0.500000       0.125000       0.000000       0.000000
                    61    cos         24        25        26        28       1.000000       0.000000       3.000000       0.500000       0.125000       0.000000       0.000000
                    62    cos         24        31        29        30      10.500000     180.000000       2.000000       0.000000       0.000000       0.000000       0.000000
                    63    cos         25        24        22        29      14.000000     180.000000       3.000000       0.000000       0.000000       0.000000       0.000000
                    64    cos         25        24        29        30       0.100000     180.000000       3.000000       0.500000       0.125000       0.000000       0.000000
                    65    cos         26        25        24        29       1.000000       0.000000       3.000000       0.500000       0.125000       0.000000       0.000000
                    66    cos         27        26        25        28      14.000000     180.000000       3.000000       0.000000       0.000000       0.000000       0.000000
                    67    cos         22        24        29        31       0.000000       0.000000       2.000000       0.500000       0.125000       0.000000       0.000000
                    68    cos         25        24        29        31       0.000000       0.000000       2.000000       0.500000       0.125000       0.000000       0.000000
                    69    cos         24        29        31        32       2.500000     180.000000       2.000000       0.500000       0.125000       0.000000       0.000000
                    70    cos         24        29        31        33       2.500000     180.000000       2.000000       0.500000       0.125000       0.000000       0.000000
                    71    cos         30        29        31        32       2.500000     180.000000       2.000000       0.500000       0.125000       0.000000       0.000000
                    72    cos         30        29        31        32       0.650000       0.000000       1.000000       0.000000       0.000000       0.000000       0.000000
                    73    cos         30        29        31        33       2.500000     180.000000       2.000000       0.500000       0.125000       0.000000       0.000000
                    74    cos         29        31        33        34       0.000000       0.000000       3.000000       0.500000       0.125000       0.000000       0.000000
                    75    cos         29        31        33        35       0.000000       0.000000       3.000000       0.500000       0.125000       0.000000       0.000000
                    76    cos         29        33        31        32       1.000000     180.000000       2.000000       0.000000       0.000000       0.000000       0.000000
                    77    cos         31        33        35        36       0.100000     180.000000       3.000000       0.500000       0.125000       0.000000       0.000000
                    78    cos         32        31        33        34       0.000000       0.000000       3.000000       0.500000       0.125000       0.000000       0.000000
                    79    cos         32        31        33        35       0.000000       0.000000       3.000000       0.500000       0.125000       0.000000       0.000000
                    80    cos         33        37        35        36      10.500000     180.000000       2.000000       0.000000       0.000000       0.000000       0.000000
                    81    cos         34        33        31        35      14.000000     180.000000       3.000000       0.000000       0.000000       0.000000       0.000000
                    82    cos         34        33        35        36       0.000000       0.000000       2.000000       0.500000       0.125000       0.000000       0.000000
                    83    cos         31        33        35        37       0.000000       0.000000       2.000000       0.500000       0.125000       0.000000       0.000000
                    84    cos         34        33        35        37       0.000000       0.000000       2.000000       0.500000       0.125000       0.000000       0.000000
                    85    cos         33        35        37        38       2.500000     180.000000       2.000000       0.500000       0.125000       0.000000       0.000000
                    86    cos         33        35        37        39       2.500000     180.000000       2.000000       0.500000       0.125000       0.000000       0.000000
                    87    cos         36        35        37        38       2.500000     180.000000       2.000000       0.500000       0.125000       0.000000       0.000000
                    88    cos         36        35        37        38       0.650000       0.000000       1.000000       0.000000       0.000000       0.000000       0.000000
                    89    cos         36        35        37        39       2.500000     180.000000       2.000000       0.500000       0.125000       0.000000       0.000000
                    90    cos         35        37        39        40       0.000000       0.000000       3.000000       0.500000       0.125000       0.000000       0.000000
                    91    cos         35        37        39        43       0.000000       0.000000       3.000000       0.500000       0.125000       0.000000       0.000000
                    92    cos         35        39        37        38       1.000000     180.000000       2.000000       0.000000       0.000000       0.000000       0.000000
                    93    cos         37        39        40        41       0.500000       0.000000       3.000000       0.500000       0.125000       0.000000       0.000000
                    94    cos         37        39        40        42       0.500000       0.000000       3.000000       0.500000       0.125000       0.000000       0.000000
                    95    cos         37        39        43        44       0.100000     180.000000       3.000000       0.500000       0.125000       0.000000       0.000000
                    96    cos         38        37        39        40       0.000000       0.000000       3.000000       0.500000       0.125000       0.000000       0.000000
                    97    cos         38        37        39        43       0.000000       0.000000       3.000000       0.500000       0.125000       0.000000       0.000000
                    98    cos         39        45        43        44      10.500000     180.000000       2.000000       0.000000       0.000000       0.000000       0.000000
                    99    cos         40        39        37        43      14.000000     180.000000       3.000000       0.000000       0.000000       0.000000       0.000000
                   100    cos         40        39        43        44       0.100000     180.000000       3.000000       0.500000       0.125000       0.000000       0.000000
                   101    cos         41        40        39        42      14.000000     180.000000       3.000000       0.000000       0.000000       0.000000       0.000000
                   102    cos         41        40        39        43       0.500000       0.000000       3.000000       0.500000       0.125000       0.000000       0.000000
                   103    cos         42        40        39        43       0.500000       0.000000       3.000000       0.500000       0.125000       0.000000       0.000000
                   104    cos         37        39        43        45       0.000000       0.000000       2.000000       0.500000       0.125000       0.000000       0.000000
                   105    cos         40        39        43        45       0.000000       0.000000       2.000000       0.500000       0.125000       0.000000       0.000000
                   106    cos         39        43        45        46       2.500000     180.000000       2.000000       0.500000       0.125000       0.000000       0.000000
                   107    cos         39        43        45        47       2.500000     180.000000       2.000000       0.500000       0.125000       0.000000       0.000000
                   108    cos         44        43        45        46       2.500000     180.000000       2.000000       0.500000       0.125000       0.000000       0.000000
                   109    cos         44        43        45        46       0.650000       0.000000       1.000000       0.000000       0.000000       0.000000       0.000000
                   110    cos         44        43        45        47       2.500000     180.000000       2.000000       0.500000       0.125000       0.000000       0.000000
                   111    cos         43        45        47        48       0.000000       0.000000       3.000000       0.500000       0.125000       0.000000       0.000000
                   112    cos         43        45        47        51       0.000000       0.000000       3.000000       0.500000       0.125000       0.000000       0.000000
                   113    cos         43        47        45        46       1.000000     180.000000       2.000000       0.000000       0.000000       0.000000       0.000000
                   114    cos         45        47        48        49       0.500000       0.000000       3.000000       0.500000       0.125000       0.000000       0.000000
                   115    cos         45        47        48        50       0.500000       0.000000       3.000000       0.500000       0.125000       0.000000       0.000000
                   116    cos         45        47        51        52       0.100000     180.000000       3.000000       0.500000       0.125000       0.000000       0.000000
                   117    cos         46        45        47        48       0.000000       0.000000       3.000000       0.500000       0.125000       0.000000       0.000000
                   118    cos         46        45        47        51       0.000000       0.000000       3.000000       0.500000       0.125000       0.000000       0.000000
                   119    cos         47        53        51        52      10.500000     180.000000       2.000000       0.000000       0.000000       0.000000       0.000000
                   120    cos         48        47        45        51      14.000000     180.000000       3.000000       0.000000       0.000000       0.000000       0.000000
                   121    cos         48        47        51        52       0.100000     180.000000       3.000000       0.500000       0.125000       0.000000       0.000000
                   122    cos         49        48        47        50      14.000000     180.000000       3.000000       0.000000       0.000000       0.000000       0.000000
                   123    cos         49        48        47        51       0.500000       0.000000       3.000000       0.500000       0.125000       0.000000       0.000000
                   124    cos         50        48        47        51       0.500000       0.000000       3.000000       0.500000       0.125000       0.000000       0.000000
                   125    cos         45        47        51        53       0.000000       0.000000       2.000000       0.500000       0.125000       0.000000       0.000000
                   126    cos         48        47        51        53       0.000000       0.000000       2.000000       0.500000       0.125000       0.000000       0.000000
                   127    cos         47        51        53        54       2.500000     180.000000       2.000000       0.500000       0.125000       0.000000       0.000000
                   128    cos         47        51        53        55       2.500000     180.000000       2.000000       0.500000       0.125000       0.000000       0.000000
                   129    cos         52        51        53        54       2.500000     180.000000       2.000000       0.500000       0.125000       0.000000       0.000000
                   130    cos         52        51        53        54       0.650000       0.000000       1.000000       0.000000       0.000000       0.000000       0.000000
                   131    cos         52        51        53        55       2.500000     180.000000       2.000000       0.500000       0.125000       0.000000       0.000000
                   132    cos         51        53        55        56       0.000000       0.000000       3.000000       0.500000       0.125000       0.000000       0.000000
                   133    cos         51        53        55        59       0.000000       0.000000       3.000000       0.500000       0.125000       0.000000       0.000000
                   134    cos         51        55        53        54       1.000000     180.000000       2.000000       0.000000       0.000000       0.000000       0.000000
                   135    cos         53        55        56        57       0.500000       0.000000       3.000000       0.500000       0.125000       0.000000       0.000000
                   136    cos         53        55        56        58       0.500000       0.000000       3.000000       0.500000       0.125000       0.000000       0.000000
                   137    cos         53        55        59        60       0.100000     180.000000       3.000000       0.500000       0.125000       0.000000       0.000000
                   138    cos         54        53        55        56       0.000000       0.000000       3.000000       0.500000       0.125000       0.000000       0.000000
                   139    cos         54        53        55        59       0.000000       0.000000       3.000000       0.500000       0.125000       0.000000       0.000000
                   140    cos         55        61        59        60      10.500000     180.000000       2.000000       0.000000       0.000000       0.000000       0.000000
                   141    cos         56        55        53        59      14.000000     180.000000       3.000000       0.000000       0.000000       0.000000       0.000000
                   142    cos         56        55        59        60       0.100000     180.000000       3.000000       0.500000       0.125000       0.000000       0.000000
                   143    cos         57        56        55        58      14.000000     180.000000       3.000000       0.000000       0.000000       0.000000       0.000000
                   144    cos         57        56        55        59       0.500000       0.000000       3.000000       0.500000       0.125000       0.000000       0.000000
                   145    cos         58        56        55        59       0.500000       0.000000       3.000000       0.500000       0.125000       0.000000       0.000000
                   146    cos         53        55        59        61       0.000000       0.000000       2.000000       0.500000       0.125000       0.000000       0.000000
                   147    cos         56        55        59        61       0.000000       0.000000       2.000000       0.500000       0.125000       0.000000       0.000000
                   148    cos         55        59        61        62       2.500000     180.000000       2.000000       0.500000       0.125000       0.000000       0.000000
                   149    cos         55        59        61        63       2.500000     180.000000       2.000000       0.500000       0.125000       0.000000       0.000000
                   150    cos         60        59        61        62       2.500000     180.000000       2.000000       0.500000       0.125000       0.000000       0.000000
                   151    cos         60        59        61        62       0.650000       0.000000       1.000000       0.000000       0.000000       0.000000       0.000000
                   152    cos         60        59        61        63       2.500000     180.000000       2.000000       0.500000       0.125000       0.000000       0.000000
                   153    cos         59        61        63        64       0.000000       0.000000       3.000000       0.500000       0.125000       0.000000       0.000000
                   154    cos         59        61        63        80       0.000000       0.000000       3.000000       0.500000       0.125000       0.000000       0.000000
                   155    cos         59        63        61        62       1.000000     180.000000       2.000000       0.000000       0.000000       0.000000       0.000000
                   156    cos         61        63        64        65       1.000000       0.000000       3.000000       0.500000       0.125000       0.000000       0.000000
                   157    cos         61        63        80        81       0.100000     180.000000       3.000000       0.500000       0.125000       0.000000       0.000000
                   158    cos         62        61        63        64       0.000000       0.000000       3.000000       0.500000       0.125000       0.000000       0.000000
                   159    cos         62        61        63        80       0.000000       0.000000       3.000000       0.500000       0.125000       0.000000       0.000000
                   160    cos         63        64        65        66       0.000000       0.000000       2.000000       0.500000       0.125000       0.000000       0.000000
                   161    cos         63        64        65        79       0.000000       0.000000       2.000000       0.500000       0.125000       0.000000       0.000000
                   162    cos         63        82        80        81      10.500000     180.000000       2.000000       0.000000       0.000000       0.000000       0.000000
                   163    cos         64        65        66        67       1.325000     180.000000       2.000000       0.500000       0.125000       0.000000       0.000000
                   164    cos         64        65        66        68       1.325000     180.000000       2.000000       0.500000       0.125000       0.000000       0.000000
                   165    cos         64        65        79        70       1.325000     180.000000       2.000000       0.500000       0.125000       0.000000       0.000000
                   166    cos         64        65        79        77       1.325000     180.000000       2.000000       0.500000       0.125000       0.000000       0.000000
                   167    cos         64        63        61        80      14.000000     180.000000       3.000000       0.000000       0.000000       0.000000       0.000000
                   168    cos         64        63        80        81       0.100000     180.000000       3.000000       0.500000       0.125000       0.000000       0.000000
                   169    cos         65        79        70        68       1.100000     180.000000       2.000000       0.000000       0.000000       0.000000       0.000000
                   170    cos         65        66        68        69       1.400000     180.000000       2.000000       0.500000       0.125000       0.000000       0.000000
                   171    cos         65        66        68        70       1.400000     180.000000       2.000000       0.000000       0.000000       0.000000       0.000000
                   172    cos         65        79        70        71       1.100000     180.000000       2.000000       0.500000       0.125000       0.000000       0.000000
                   173    cos         65        79        77        75       1.325000     180.000000       2.000000       0.500000       0.125000       0.000000       0.000000
                   174    cos         65        79        77        78       1.325000     180.000000       2.000000       0.500000       0.125000       0.000000       0.000000
                   175    cos         65        64        63        80       1.000000       0.000000       3.000000       0.500000       0.125000       0.000000       0.000000
                   176    cos         66        70        68        69       1.000000     180.000000       2.000000       0.000000       0.000000       0.000000       0.000000
                   177    cos         66        65        79        70       1.325000     180.000000       2.000000       0.000000       0.000000       0.000000       0.000000
                   178    cos         66        68        70        71       1.525000     180.000000       2.000000       0.500000       0.125000       0.000000       0.000000
                   179    cos         66        65        79        77       1.325000     180.000000       2.000000       0.500000       0.125000       0.000000       0.000000
                   180    cos         66        68        70        79       1.525000     180.000000       2.000000       0.000000       0.000000       0.000000       0.000000
                   181    cos         67        66        68        69       1.400000     180.000000       2.000000       0.500000       0.125000       0.000000       0.000000
                   182    cos         67        66        68        70       1.400000     180.000000       2.000000       0.500000       0.125000       0.000000       0.000000
                   183    cos         67        66        65        79       1.325000     180.000000       2.000000       0.500000       0.125000       0.000000       0.000000
                   184    cos         68        70        71        72       1.325000     180.000000       2.000000       0.500000       0.125000       0.000000       0.000000
                   185    cos         68        70        71        73       1.325000     180.000000       2.000000       0.500000       0.125000       0.000000       0.000000
                   186    cos         68        70        79        77       1.100000     180.000000       2.000000       0.500000       0.125000       0.000000       0.000000
                   187    cos         68        66        65        79       1.325000     180.000000       2.000000       0.000000       0.000000       0.000000       0.000000
                   188    cos         69        68        70        71       1.525000     180.000000       2.000000       0.500000       0.125000       0.000000       0.000000
                   189    cos         69        68        70        79       1.525000     180.000000       2.000000       0.500000       0.125000       0.000000       0.000000
                   190    cos         70        73        71        72       2.000000     180.000000       2.000000       0.000000       0.000000       0.000000       0.000000
                   191    cos         70        71        73        74       1.325000     180.000000       2.000000       0.500000       0.125000       0.000000       0.000000
                   192    cos         70        79        77        75       1.325000     180.000000       2.000000       0.500000       0.125000       0.000000       0.000000
                   193    cos         70        71        73        75       1.325000     180.000000       2.000000       0.000000       0.000000       0.000000       0.000000
                   194    cos         70        79        77        78       1.325000     180.000000       2.000000       0.500000       0.125000       0.000000       0.000000
                   195    cos         71        75        73        74       2.000000     180.000000       2.000000       0.000000       0.000000       0.000000       0.000000
                   196    cos         71        73        75        76       1.325000     180.000000       2.000000       0.500000       0.125000       0.000000       0.000000
                   197    cos         71        73        75        77       1.325000     180.000000       2.000000       0.500000       0.125000       0.000000       0.000000
                   198    cos         71        70        79        77       1.100000     180.000000       2.000000       0.000000       0.000000       0.000000       0.000000
                   199    cos         72        71        73        74       1.325000     180.000000       2.000000       0.500000       0.125000       0.000000       0.000000
                   200    cos         72        71        73        75       1.325000     180.000000       2.000000       0.500000       0.125000       0.000000       0.000000
                   201    cos         72        71        70        79       1.325000     180.000000       2.000000       0.500000       0.125000       0.000000       0.000000
                   202    cos         73        77        75        76       2.000000     180.000000       2.000000       0.000000       0.000000       0.000000       0.000000
                   203    cos         73        75        77        78       1.325000     180.000000       2.000000       0.500000       0.125000       0.000000       0.000000
                   204    cos         73        71        70        79       1.325000     180.000000       2.000000       0.500000       0.125000       0.000000       0.000000
                   205    cos         73        75        77        79       1.325000     180.000000       2.000000       0.000000       0.000000       0.000000       0.000000
                   206    cos         74        73        75        76       1.325000     180.000000       2.000000       0.500000       0.125000       0.000000       0.000000
                   207    cos         74        73        75        77       1.325000     180.000000       2.000000       0.500000       0.125000       0.000000       0.000000
                   208    cos         75        79        77        78       2.000000     180.000000       2.000000       0.000000       0.000000       0.000000       0.000000
                   209    cos         76        75        77        78       1.325000     180.000000       2.000000       0.500000       0.125000       0.000000       0.000000
                   210    cos         76        75        77        79       1.325000     180.000000       2.000000       0.500000       0.125000       0.000000       0.000000
                   211    cos         61        63        80        82       0.000000       0.000000       2.000000       0.500000       0.125000       0.000000       0.000000
                   212    cos         64        63        80        82       0.000000       0.000000       2.000000       0.500000       0.125000       0.000000       0.000000
                   213    cos         63        80        82        83       2.500000     180.000000       2.000000       0.500000       0.125000       0.000000       0.000000
                   214    cos         63        80        82        84       2.500000     180.000000       2.000000       0.500000       0.125000       0.000000       0.000000
                   215    cos         81        80        82        83       2.500000     180.000000       2.000000       0.500000       0.125000       0.000000       0.000000
                   216    cos         81        80        82        83       0.650000       0.000000       1.000000       0.000000       0.000000       0.000000       0.000000
                   217    cos         81        80        82        84       2.500000     180.000000       2.000000       0.500000       0.125000       0.000000       0.000000
                   218    cos         80        82        84        85       0.000000       0.000000       3.000000       0.500000       0.125000       0.000000       0.000000
                   219    cos         80        82        84        89       0.000000       0.000000       3.000000       0.500000       0.125000       0.000000       0.000000
                   220    cos         80        84        82        83       1.000000     180.000000       2.000000       0.000000       0.000000       0.000000       0.000000
                   221    cos         82        84        85        86       1.000000       0.000000       3.000000       0.500000       0.125000       0.000000       0.000000
                   222    cos         82        84        89        90       0.100000     180.000000       3.000000       0.500000       0.125000       0.000000       0.000000
                   223    cos         83        82        84        85       0.000000       0.000000       3.000000       0.500000       0.125000       0.000000       0.000000
                   224    cos         83        82        84        89       0.000000       0.000000       3.000000       0.500000       0.125000       0.000000       0.000000
                   225    cos         84        85        86        87       1.000000       0.000000       3.000000       0.500000       0.125000       0.000000       0.000000
                   226    cos         84        85        86        88       1.000000       0.000000       3.000000       0.500000       0.125000       0.000000       0.000000
                   227    cos         84        91        89        90      10.500000     180.000000       2.000000       0.000000       0.000000       0.000000       0.000000
                   228    cos         85        84        82        89      14.000000     180.000000       3.000000       0.000000       0.000000       0.000000       0.000000
                   229    cos         85        84        89        90       0.100000     180.000000       3.000000       0.500000       0.125000       0.000000       0.000000
                   230    cos         86        85        84        89       1.000000       0.000000       3.000000       0.500000       0.125000       0.000000       0.000000
                   231    cos         87        86        85        88      14.000000     180.000000       3.000000       0.000000       0.000000       0.000000       0.000000
                   232    cos         82        84        89        91       0.000000       0.000000       2.000000       0.500000       0.125000       0.000000       0.000000
                   233    cos         85        84        89        91       0.000000       0.000000       2.000000       0.500000       0.125000       0.000000       0.000000
                   234    cos         84        89        91        92       2.500000     180.000000       2.000000       0.500000       0.125000       0.000000       0.000000
                   235    cos         84        89        91        93       2.500000     180.000000       2.000000       0.500000       0.125000       0.000000       0.000000
                   236    cos         90        89        91        92       2.500000     180.000000       2.000000       0.500000       0.125000       0.000000       0.000000
                   237    cos         90        89        91        92       0.650000       0.000000       1.000000       0.000000       0.000000       0.000000       0.000000
                   238    cos         90        89        91        93       2.500000     180.000000       2.000000       0.500000       0.125000       0.000000       0.000000
                   239    cos         89        91        93        94       0.000000       0.000000       3.000000       0.500000       0.125000       0.000000       0.000000
                   240    cos         89        91        93       110       0.000000       0.000000       3.000000       0.500000       0.125000       0.000000       0.000000
                   241    cos         89        93        91        92       1.000000     180.000000       2.000000       0.000000       0.000000       0.000000       0.000000
                   242    cos         91        93        94        95       1.000000       0.000000       3.000000       0.500000       0.125000       0.000000       0.000000
                   243    cos         91        93       110       111       0.100000     180.000000       3.000000       0.500000       0.125000       0.000000       0.000000
                   244    cos         92        91        93        94       0.000000       0.000000       3.000000       0.500000       0.125000       0.000000       0.000000
                   245    cos         92        91        93       110       0.000000       0.000000       3.000000       0.500000       0.125000       0.000000       0.000000
                   246    cos         93        94        95        96       0.000000       0.000000       2.000000       0.500000       0.125000       0.000000       0.000000
                   247    cos         93        94        95       109       0.000000       0.000000       2.000000       0.500000       0.125000       0.000000       0.000000
                   248    cos         93       112       110       111      10.500000     180.000000       2.000000       0.000000       0.000000       0.000000       0.000000
                   249    cos         94        95        96        97       1.325000     180.000000       2.000000       0.500000       0.125000       0.000000       0.000000
                   250    cos         94        95        96        98       1.325000     180.000000       2.000000       0.500000       0.125000       0.000000       0.000000
                   251    cos         94        95       109       100       1.325000     180.000000       2.000000       0.500000       0.125000       0.000000       0.000000
                   252    cos         94        95       109       107       1.325000     180.000000       2.000000       0.500000       0.125000       0.000000       0.000000
                   253    cos         94        93        91       110      14.000000     180.000000       3.000000       0.000000       0.000000       0.000000       0.000000
                   254    cos         94        93       110       111       0.100000     180.000000       3.000000       0.500000       0.125000       0.000000       0.000000
[...]


 warning issued     20

 *** warning - : 1..4 scale factors reset for molecule: 1 sites: 340 & 343 !!! ***


 warning issued     20

 *** warning - : 1..4 scale factors reset for molecule: 1 sites: 342 & 345 !!! ***


 warning issued     20

 *** warning - : 1..4 scale factors reset for molecule: 1 sites: 347 & 350 !!! ***


 configuration file name: 

          GRAMICIDIN A WITH WATER SOLVATING (99120 ATOMS)                         


 selected image convention               2


 simulation cell vectors

      112.3843994140        0.0000000000        0.0000000000
        0.0000000000       94.3219299316        0.0000000000
        0.0000000000        0.0000000000       94.2717666626


 system volume            999310.275820    

 *** all reading and connectivity checks DONE ***

 time elapsed since job start:        0.592 sec


 long-range correction for: vdw energy    -0.298721E+04
                          : vdw pressure  -0.409380E+00

 *** initialisation and haloing DONE ***

 time elapsed since job start:        0.606 sec

 //==============================================================\\
 ||                                                              ||
 ||           SUMMARY  OF  TOPOLOGICAL  DECOMPOSITION            ||
 ||                                                              ||
 ||--------------------------------------------------------------||
 ||  INTERACTION  OR  TYPE  |  GRAND TOTAL | Fully/Partly FROZEN ||
 ||-------------------------+--------------+---------------------||
 ||  all particles/sites    |       99120  |  F            0     ||
 ||  free particles         |       99120  |  F            0     ||
 ||  core-shell units       |           0  |  P            0     ||
 ||  constraint bond units  |       96944  |  F            0     ||
 ||  PMF units              |           0  |  P         NONE     ||
 ||  rigid body units       |           0  |  F            0     ||
 ||  tethered atom units    |           0  |  F            0     ||
 ||  chemical bond units    |        2288  |  F            0     ||
 ||  bond angle units       |        4480  |  F            0     ||
 ||  dihedral angle units   |        7680  |  F            0     ||
 ||  inversion angle units  |           0  |  F            0     ||
 \\==============================================================//


 *** bookkeeping DONE ***

 time elapsed since job start:        0.643 sec


 degrees of freedom break-down list
 ----------------------------------
 free particles              297360
 centre of mass                  -3
 non-periodicity                  0
 frozen free particles            0
 shell-pseudo                     0
 constrained                 -96944
 RB translational                 0
 RB rotational                    0
 ----------------------------------
 total (real)                200413

 *** temperature setting DONE ***

 time elapsed since job start:        0.723 sec


 sample of starting configuration on node zero

        i       x(i)        y(i)        z(i)       vx(i)       vy(i)       vz(i)


        1 -5.3741E+01 -4.5121E+00 -4.4880E+01 -4.5920E+00  8.4717E+00 -1.7979E+01
     3099 -1.9278E+01 -9.5748E+00 -1.2387E+01  6.3361E+00  6.5947E+00  7.0973E+00
     3733 -2.1702E+01 -1.3505E+01 -3.9945E+01  1.1876E+00  2.3281E+00  3.6367E+00
     4357 -2.9385E+01 -4.1130E+01 -4.0943E+01 -1.4696E+00 -2.1839E+00  3.1230E+00
     4982 -9.4414E-01 -2.1904E+01 -1.3778E+01  5.5218E+00 -6.0758E+00  4.1637E+00
     5616 -1.2385E+01 -1.2470E+01 -1.0787E+01 -1.2511E+01 -1.9485E+01 -7.5722E+00
     6254 -9.1551E+00 -6.6485E+00 -3.1768E+01  2.3986E+01  1.6983E+01  4.7663E+00
     6885 -5.8799E+00 -3.8958E+01 -2.3240E+01  1.0945E+01  1.1847E+01 -6.9860E-01
     7518 -1.2710E+00 -2.8901E+01 -2.9003E+00 -2.5506E+00 -7.8259E+00 -5.7419E+00
     8152 -6.4493E+00 -4.6252E+01 -3.0605E+01 -3.2704E-01 -1.4750E+00 -7.4813E+00
     8790 -1.1903E+01 -2.7602E+01 -2.0248E+01  6.3472E+00  6.0294E-01  1.7846E+01
     9417 -3.8416E+01 -7.7002E-01 -8.5948E+00 -2.7142E-01 -6.2346E+00 -2.1958E+00
    10051 -4.3949E+01 -1.6654E+01 -2.8837E+01  4.5101E+00 -1.2748E+00  4.8184E-01
    10684 -4.1197E+01 -1.6040E+01 -2.7840E+01 -3.9887E+00 -1.1598E+00  2.0513E+00
    11315 -3.5704E+01 -4.3057E+01 -6.4348E-01  2.4449E+00 -2.1739E+01 -1.4025E+00
    11943 -5.5018E+01 -4.5091E+01 -3.2436E+01 -7.6746E+00 -3.6804E+00  1.7710E+00
    12570 -5.3555E+01 -3.0030E+01 -3.6492E+01  3.8212E+00 -3.0542E+00  1.0388E+01
    13191 -2.5833E+01 -4.3252E+00 -1.5472E+01  1.4372E+01 -3.0108E+01  5.7731E+00
    13819 -3.8018E+01 -4.1252E+01 -2.1841E+01 -2.0642E+00 -5.4170E-01  6.7146E-01
    14450 -3.2690E+01 -3.3749E+01 -3.2552E+01 -2.7953E+00 -1.9269E+01  1.7736E+01



 time elapsed since job start:        0.724 sec

 forces evaluated at (re)start for VV integration...

 ----------------------------------------------------------------------------------------------------------------------------------

          step     eng_tot    temp_tot     eng_cfg     eng_src     eng_cou     eng_bnd     eng_ang     eng_dih     eng_tet
      time(ps)      eng_pv    temp_rot     vir_cfg     vir_src     vir_cou     vir_bnd     vir_ang     vir_con     vir_tet
      cpu  (s)      volume    temp_shl     eng_shl     vir_shl       alpha        beta       gamma     vir_pmf       press

 ----------------------------------------------------------------------------------------------------------------------------------
             0  1.3944E+05  3.0000E+02  7.9703E+04  8.8733E+04 -4.0907E+05  2.8502E+04  3.6055E+05  1.0989E+04  0.0000E+00
       0.00000  1.3946E+05  0.0000E+00 -1.0193E+06 -1.8411E+06  4.0863E+05  4.1320E+05  0.0000E+00  0.0000E+00  0.0000E+00
         1.236  9.9931E+05  0.0000E+00  0.0000E+00  0.0000E+00  9.0000E+01  9.0000E+01  9.0000E+01  0.0000E+00  2.6046E+01

       rolling  0.0000E+00  0.0000E+00  0.0000E+00  0.0000E+00  0.0000E+00  0.0000E+00  0.0000E+00  0.0000E+00  0.0000E+00
      averages  0.0000E+00  0.0000E+00  0.0000E+00  0.0000E+00  0.0000E+00  0.0000E+00  0.0000E+00  0.0000E+00  0.0000E+00
                0.0000E+00  0.0000E+00  0.0000E+00  0.0000E+00  0.0000E+00  0.0000E+00  0.0000E+00  0.0000E+00  0.0000E+00
 ----------------------------------------------------------------------------------------------------------------------------------

 timestep decreased, new timestep is:     5.0000E-04


 timestep decreased, new timestep is:     2.5000E-04

 ----------------------------------------------------------------------------------------------------------------------------------

          step     eng_tot    temp_tot     eng_cfg     eng_src     eng_cou     eng_bnd     eng_ang     eng_dih     eng_tet
      time(ps)      eng_pv    temp_rot     vir_cfg     vir_src     vir_cou     vir_bnd     vir_ang     vir_con     vir_tet
      cpu  (s)      volume    temp_shl     eng_shl     vir_shl       alpha        beta       gamma     vir_pmf       press

 ----------------------------------------------------------------------------------------------------------------------------------
             1  1.3947E+05  2.9842E+02  8.0040E+04  8.8861E+04 -4.0882E+05  2.8536E+04  3.6046E+05  1.1000E+04  0.0000E+00
       0.00025  1.3948E+05  0.0000E+00  7.7438E+04 -1.8427E+06  4.0838E+05  4.1264E+05  0.0000E+00  1.0991E+06  0.0000E+00
         2.265  9.9932E+05  0.0000E+00  0.0000E+00  0.0000E+00  9.0000E+01  9.0000E+01  9.0000E+01  0.0000E+00  9.4717E-01

       rolling  1.3947E+05  2.9842E+02  8.0040E+04  8.8861E+04 -4.0882E+05  2.8536E+04  3.6046E+05  1.1000E+04  0.0000E+00
      averages  1.3948E+05  0.0000E+00  7.7438E+04 -1.8427E+06  4.0838E+05  4.1264E+05  0.0000E+00  1.0991E+06  0.0000E+00
                9.9932E+05  0.0000E+00  0.0000E+00  0.0000E+00  9.0000E+01  9.0000E+01  9.0000E+01  0.0000E+00  9.4717E-01
 ----------------------------------------------------------------------------------------------------------------------------------
             5  1.2730E+05  3.0000E+02  6.7563E+04  8.8060E+04 -4.0794E+05  2.5015E+04  3.5132E+05  1.1110E+04  0.0000E+00
       0.00125  1.2732E+05  0.0000E+00  5.1032E+04 -1.8325E+06  4.0750E+05  3.6745E+05  0.0000E+00  1.1086E+06  0.0000E+00
         5.255  9.9937E+05  0.0000E+00  0.0000E+00  0.0000E+00  9.0000E+01  9.0000E+01  9.0000E+01  0.0000E+00  1.5654E+00

       rolling  1.3646E+05  3.0794E+02  7.5140E+04  8.8577E+04 -4.0837E+05  2.7118E+04  3.5677E+05  1.1048E+04  0.0000E+00
      averages  1.3647E+05  0.0000E+00  6.5116E+04 -1.8390E+06  4.0793E+05  3.9427E+05  0.0000E+00  1.1020E+06  0.0000E+00
                9.9935E+05  0.0000E+00  0.0000E+00  0.0000E+00  9.0000E+01  9.0000E+01  9.0000E+01  0.0000E+00  1.3156E+00
 ----------------------------------------------------------------------------------------------------------------------------------
            10  1.0627E+05  3.7781E+02  3.1031E+04  8.6375E+04 -4.0720E+05  1.6351E+04  3.2416E+05  1.1348E+04  0.0000E+00
       0.00250  1.0628E+05  0.0000E+00 -4.1482E+04 -1.8108E+06  4.0676E+05  2.3953E+05  0.0000E+00  1.1230E+06  0.0000E+00
         8.923  9.9952E+05  0.0000E+00  0.0000E+00  0.0000E+00  9.0000E+01  9.0000E+01  9.0000E+01  0.0000E+00  4.3894E+00

       rolling  1.2555E+05  3.2426E+02  6.0982E+04  8.7780E+04 -4.0792E+05  2.3518E+04  3.4645E+05  1.1148E+04  0.0000E+00
      averages  1.2557E+05  0.0000E+00  3.0904E+04 -1.8289E+06  4.0748E+05  3.4478E+05  0.0000E+00  1.1075E+06  0.0000E+00
                9.9940E+05  0.0000E+00  0.0000E+00  0.0000E+00  9.0000E+01  9.0000E+01  9.0000E+01  0.0000E+00  2.2466E+00
 ----------------------------------------------------------------------------------------------------------------------------------
            15  5.5283E+04  3.4055E+02 -1.2532E+04  8.5679E+04 -4.0689E+05  9.8803E+03  2.8720E+05  1.1598E+04  0.0000E+00
       0.00375  5.5298E+04  0.0000E+00 -1.6630E+05 -1.8008E+06  4.0645E+05  7.9797E+04  0.0000E+00  1.1483E+06  0.0000E+00
        12.649  9.9980E+05  0.0000E+00  0.0000E+00  0.0000E+00  9.0000E+01  9.0000E+01  9.0000E+01  0.0000E+00  6.9024E+00

       rolling  1.0738E+05  3.2718E+02  4.2231E+04  8.7152E+04 -4.0760E+05  1.9691E+04  3.3173E+05  1.1266E+04  0.0000E+00
      averages  1.0740E+05  0.0000E+00 -1.6903E+04 -1.8206E+06  4.0717E+05  2.7772E+05  0.0000E+00  1.1188E+06  0.0000E+00
                9.9949E+05  0.0000E+00  0.0000E+00  0.0000E+00  9.0000E+01  9.0000E+01  9.0000E+01  0.0000E+00  3.3660E+00
 ----------------------------------------------------------------------------------------------------------------------------------
            20  6.1108E+03  3.0000E+02 -5.3629E+04  8.5239E+04 -4.0698E+05  9.4227E+03  2.4690E+05  1.1785E+04  0.0000E+00
       0.00500  6.1254E+03  0.0000E+00 -2.6073E+05 -1.7938E+06  4.0653E+05 -7.4537E+04  0.0000E+00  1.2010E+06  0.0000E+00
        16.396  1.0002E+06  0.0000E+00  0.0000E+00  0.0000E+00  9.0000E+01  9.0000E+01  9.0000E+01  0.0000E+00  8.6883E+00

       rolling  8.8070E+04  3.3036E+02  2.2284E+04  8.6721E+04 -4.0743E+05  1.7039E+04  3.1458E+05  1.1379E+04  0.0000E+00
      averages  8.8084E+04  0.0000E+00 -6.8716E+04 -1.8146E+06  4.0699E+05  2.0477E+05  0.0000E+00  1.1342E+06  0.0000E+00
                9.9963E+05  0.0000E+00  0.0000E+00  0.0000E+00  9.0000E+01  9.0000E+01  9.0000E+01  0.0000E+00  4.5788E+00
 ----------------------------------------------------------------------------------------------------------------------------------

 switching off temperature scaling at step 20

 constraints quench run statistics per call: average cycles 32.75 / 32.75 minimum cycles  30 /  30 maximum cycles  52 /  52

 ----------------------------------------------------------------------------------------------------------------------------------


 run terminating...  elapsed cpu time:       16.396 sec, job time:     7200.000 sec, close time:      100.000 sec



 sample of final configuration on node zero

        i       x(i)        y(i)        z(i)       vx(i)       vy(i)       vz(i)       fx(i)       fy(i)       fz(i)


        1 -5.3753E+01 -4.5069E+00 -4.4927E+01  3.3007E+00 -3.8117E+00  4.9577E+00  1.1761E+04 -3.4844E+04  8.6351E+04
     3098 -1.7815E+01 -9.6820E+00 -1.1923E+01  1.7724E-01 -2.2817E+00  7.9631E+00 -4.2541E+02  4.5323E+03  1.0441E+03
     3731 -1.9027E+01 -1.7405E+01 -3.3468E+01 -2.5209E+00  4.1049E+00 -2.5952E+00 -2.8108E+03  4.2309E+03  9.0075E+03
     4354 -2.3844E+01 -4.3144E+01 -3.1532E+01  2.4978E+00  3.5779E-01  1.3983E+00  1.6128E+02  1.2716E+04 -1.6955E+03
     4978 -1.8982E+00 -1.8541E+01 -1.3492E+01 -2.1635E-01 -1.9771E+00  8.7612E-01  8.2012E+03  1.1933E+04 -4.7566E+03
     5611 -3.5773E+00 -1.1662E+01 -3.2010E+00 -1.0522E+00  2.3301E+00  1.8096E-02  4.7472E+03  6.9374E+03 -5.2149E+03
     6248 -5.4092E+01 -1.1056E+01 -3.6957E+01 -3.4916E+00  3.8785E+00  2.8376E+00  1.6382E+03 -5.0804E+03  3.1371E+03
     6878 -5.5746E+00 -3.5056E+01 -1.2662E+01  4.0995E+00 -3.9105E+00 -1.1991E+00  3.3556E+03  3.0919E+03  7.1186E+03
     7510 -1.1285E+01 -3.0990E+01 -1.6087E+01 -1.7383E+00  2.0919E+00 -1.3583E+00 -6.7227E+02  1.2412E+04  5.7923E+03
     8140 -5.5980E+01 -2.9117E+01 -1.7100E+01  3.4210E+00  1.1609E+00  8.3353E+00  2.2666E+03  8.3631E+03  7.3216E+02
     8780 -4.3436E+01 -2.0372E+01 -3.0091E+01  6.0639E+00  2.1705E+00 -2.7390E+00 -2.6125E+03  7.5994E+03 -3.7452E+03
     9406 -4.7904E+01 -1.7405E+01 -8.5857E+00 -4.9840E-01  7.0800E-01 -2.0984E+00  9.8600E+03  6.3628E+03  3.5002E+02
    10039 -5.5014E+01 -4.6842E+00 -3.2997E+01 -1.3481E-01  1.4045E+00 -2.9361E+00  5.4195E+03 -7.0348E+03  4.9055E+03
    10671 -4.9698E+01 -1.6032E+00 -2.6996E+01  1.4816E+01 -2.7797E+00 -5.0673E+00  2.9345E+03  1.2977E+03  5.9993E+03
    11300 -3.9857E+01 -3.8462E+01 -2.3845E+01 -1.1350E+00 -5.5507E-01  1.9143E+00  2.0436E+03 -6.1362E+03  4.3070E+03
    11927 -4.9814E+01 -2.9727E+01 -3.6423E+01 -9.5143E-01 -8.8959E-03  1.0755E+01  6.2080E+03 -2.8905E+03  2.1602E+03
    12553 -4.8332E+01 -2.4838E+01 -3.4187E+00 -1.1959E+00 -3.8128E-01 -1.8284E-01 -1.2040E+04  6.8431E+03 -9.8293E+03
    13174 -2.1376E+01 -2.0641E+00 -1.5724E+01  1.3556E+00 -1.1917E+00 -3.8732E-01 -1.7917E+02 -9.8668E+03 -8.4352E+03
    13800 -3.3691E+01 -2.5870E+01 -2.0053E+01  3.9866E+00  1.2588E+00 -3.6438E+00 -4.5945E+03  4.6484E+03 -5.7345E+03
    14431 -3.7332E+01 -4.1164E+01 -3.0432E+01  1.9586E+00 -4.3844E+00  1.2653E+00 -4.3517E+02 -2.4264E+03 -1.5266E+04


 constraints shake  run statistics - cycles per call/timestep: average  6.66 / 86.59 minimum   0 /  80 maximum  34 /  91
 constraints rattle run statistics - cycles per call/timestep: average 22.00 / 22.00 minimum  22 /  22 maximum  22 /  22


 run terminated after       20 steps (     0.005 ps), final averages calculated over       20 steps (     0.005 ps).


 ----------------------------------------------------------------------------------------------------------------------------------

          step     eng_tot    temp_tot     eng_cfg     eng_src     eng_cou     eng_bnd     eng_ang     eng_dih     eng_tet
      time(ps)      eng_pv    temp_rot     vir_cfg     vir_src     vir_cou     vir_bnd     vir_ang     vir_con     vir_tet
      cpu  (s)      volume    temp_shl     eng_shl     vir_shl       alpha        beta       gamma     vir_pmf       press

 ----------------------------------------------------------------------------------------------------------------------------------
            20  8.8070E+04  3.3036E+02  2.2284E+04  8.6721E+04 -4.0743E+05  1.7039E+04  3.1458E+05  1.1379E+04  0.0000E+00
       0.00475  8.8084E+04  0.0000E+00 -6.8716E+04 -1.8146E+06  4.0699E+05  2.0477E+05  0.0000E+00  1.1342E+06  0.0000E+00
        16.596  9.9963E+05  0.0000E+00  0.0000E+00  0.0000E+00  9.0000E+01  9.0000E+01  9.0000E+01  0.0000E+00  4.5788E+00

       r.m.s.   4.2490E+04  3.1023E+01  4.3892E+04  1.2471E+03  6.1212E+02  7.2317E+03  3.6613E+04  2.5973E+02  0.0000E+00
      fluctu-   4.2490E+04  0.0000E+00  1.1320E+05  1.6620E+04  6.1265E+02  1.5919E+05  0.0000E+00  3.1615E+04  0.0000E+00
      ations    2.7867E+02  0.0000E+00  0.0000E+00  0.0000E+00  0.0000E+00  0.0000E+00  0.0000E+00  0.0000E+00  2.6868E+00
 ----------------------------------------------------------------------------------------------------------------------------------

 Extended energy:         0.0000E+00      r.m.s. fluctuations:    0.0000E+00

 <P*V> term:              1.1240E+02      r.m.s. fluctuations:    1.0444E-02

 ----------------------------------------------------------------------------------------------------------------------------------


            Approximate 3D Diffusion Coefficients and square root of MSDs

            atom         DC (10^-9 m^2 s^-1)   Sqrt[MSD] (Ang)

            O                 0.0000E+00          4.3971E-02
            CS                0.0000E+00          4.9912E-02
            N                 0.0000E+00          8.3255E-02
            H                 0.0000E+00          1.6397E-01
            CH                0.0000E+00          9.8318E-02
            CZ                0.0000E+00          6.1653E-02
            C3                0.0000E+00          4.0345E-02
            C                 0.0000E+00          9.8463E-02
            CQ                0.0000E+00          8.0735E-02
            C2                0.0000E+00          6.4658E-02
            CK                0.0000E+00          9.8659E-02
            HK                0.0000E+00          3.4183E-01
            NA                0.0000E+00          6.8304E-02
            CN                0.0000E+00          9.3344E-02
            CB                0.0000E+00          9.4033E-02
            OH                0.0000E+00          4.3421E-02
            HO                0.0000E+00          4.3488E-01
            OW                0.0000E+00          1.5132E-02
            HW                0.0000E+00          3.8230E-02


                Average pressure tensor  (katms)                              r.m.s. fluctuations

          -1.3864E+01 -3.8832E+00 -4.8823E+00                          5.9078E+00  3.4218E-01  1.0127E+00
          -3.8832E+00  1.6125E+01  9.5132E-01                          3.4218E-01  5.8140E-01  1.8331E-01
          -4.8823E+00  9.5132E-01  1.1475E+01                          1.0127E+00  1.8331E-01  1.6355E+00

            trace/3    4.5788E+00


                Average cell vectors     (Angs)                               r.m.s. fluctuations

      112.3963227635        0.0000000000        0.0000000000           1.0444E-02  0.0000E+00  0.0000E+00
        0.0000000000       94.3319369552        0.0000000000           0.0000E+00  8.7653E-03  0.0000E+00
        0.0000000000        0.0000000000       94.2817683641           0.0000E+00  0.0000E+00  8.7606E-03



 time elapsed since job start:       16.597 sec



 *************************************************************************************************************************
 **************                                                                                             **************
 **************  Thank you for using the DL_POLY_4 package in your work.  Please, acknowledge our efforts   **************
 **************                                                                                             **************
 **************  by including the following references when publishing data obtained using DL_POLY_4:       **************
 **************                                                                                             **************
 **************  I.T. Todorov, W. Smith, K. Trachenko & M.T. Dove, `J. Mater. Chem.', 16, 1911-1918 (2006)  **************
 **************  I.J. Bush, I.T. Todorov & W. Smith, `Comp. Phys. Commun.', 175, 323-329 (2006)             **************
 **************                                                                                             **************
 *************************************************************************************************************************

